# vtk DataFile Version 3.0
#This file was generated by the deal.II library on 2020/2/28 at 18:29:50
ASCII
DATASET UNSTRUCTURED_GRID

POINTS 24000 double
9.29026 1.47143 9
9.29026 1.47143 10
9.40606 0 9
9.40606 0 10
9.87688 1.56434 9
9.87688 1.56434 10
10 0 9
10 0 10
9.29026 1.47143 8
9.29026 1.47143 9
9.40606 0 8
9.40606 0 9
9.87688 1.56434 8
9.87688 1.56434 9
10 0 8
10 0 9
8.94569 2.90663 9
8.94569 2.90663 10
9.29026 1.47143 9
9.29026 1.47143 10
9.51057 3.09017 9
9.51056 3.09017 10
9.87688 1.56434 9
9.87688 1.56434 10
8.72183 1.3814 9
8.72183 1.3814 10
8.83055 0 9
8.83055 0 10
9.29026 1.47143 9
9.29026 1.47143 10
9.40606 0 9
9.40606 0 10
9.29026 1.47143 7
9.29026 1.47143 8
9.40606 0 7
9.40606 0 8
9.87688 1.56434 7
9.87688 1.56434 8
10 0 7
10 0 8
8.72183 1.3814 8
8.72183 1.3814 9
8.83055 0 8
8.83055 0 9
9.29026 1.47143 8
9.29026 1.47143 9
9.40606 0 8
9.40606 0 9
8.94569 2.90663 8
8.94569 2.90663 9
9.29026 1.47143 8
9.29026 1.47143 9
9.51057 3.09017 8
9.51057 3.09017 9
9.87688 1.56434 8
9.87688 1.56434 9
8.94569 2.90663 9
8.94569 2.90663 10
9.51057 3.09017 9
9.51056 3.09017 10
8.38086 4.27026 9
8.38086 4.27026 10
8.91007 4.5399 9
8.91006 4.5399 10
8.39835 2.72879 9
8.72183 1.3814 9
8.94569 2.90663 9
9.29026 1.47143 9
8.39835 2.72879 10
8.72183 1.3814 10
8.94569 2.90663 10
9.29026 1.47143 10
8.17162 1.29426 9
8.17162 1.29426 10
8.27348 0 9
8.27348 0 10
8.72183 1.3814 9
8.72183 1.3814 10
8.83055 0 9
8.83055 0 10
9.29026 1.47143 6
9.29026 1.47143 7
9.40606 0 6
9.40606 0 7
9.87688 1.56434 6
9.87688 1.56434 7
10 0 6
10 0 7
8.94569 2.90663 7
8.94569 2.90663 8
9.29026 1.47143 7
9.29026 1.47143 8
9.51057 3.09017 7
9.51057 3.09017 8
9.87688 1.56434 7
9.87688 1.56434 8
8.72183 1.3814 7
8.72183 1.3814 8
8.83055 0 7
8.83055 0 8
9.29026 1.47143 7
9.29026 1.47143 8
9.40606 0 7
9.40606 0 8
8.17162 1.29426 8
8.17162 1.29426 9
8.27348 0 8
8.27348 0 9
8.72183 1.3814 8
8.72183 1.3814 9
8.83055 0 8
8.83055 0 9
8.39835 2.72879 8
8.72183 1.3814 8
8.94569 2.90663 8
9.29026 1.47143 8
8.39835 2.72879 9
8.72183 1.3814 9
8.94569 2.90663 9
9.29026 1.47143 9
8.94569 2.90663 8
8.94569 2.90663 9
9.51057 3.09017 8
9.51057 3.09017 9
8.38086 4.27026 8
8.38086 4.27026 9
8.91007 4.5399 8
8.91007 4.5399 9
7.60966 5.52874 9
8.38086 4.27026 9
8.09017 5.87785 9
8.91007 4.5399 9
7.60966 5.52874 10
8.38086 4.27026 10
8.09017 5.87785 10
8.91006 4.5399 10
8.39835 2.72879 9
8.39835 2.72879 10
8.94569 2.90663 9
8.94569 2.90663 10
7.86808 4.00898 9
7.86808 4.00898 10
8.38086 4.27026 9
8.38086 4.27026 10
7.86855 2.55664 9
8.17162 1.29426 9
8.39835 2.72879 9
8.72183 1.3814 9
7.86855 2.55664 10
8.17162 1.29426 10
8.39835 2.72879 10
8.72183 1.3814 10
7.63961 1.20999 9
7.63961 1.20999 10
7.73484 0 9
7.73484 0 10
8.17162 1.29426 9
8.17162 1.29426 10
8.27348 0 9
8.27348 0 10
9.29026 1.47143 5
9.29026 1.47143 6
9.40606 0 5
9.40606 0 6
9.87688 1.56434 5
9.87688 1.56434 6
10 0 5
10 0 6
8.94569 2.90663 6
8.94569 2.90663 7
9.29026 1.47143 6
9.29026 1.47143 7
9.51057 3.09017 6
9.51057 3.09017 7
9.87688 1.56434 6
9.87688 1.56434 7
8.72183 1.3814 6
8.72183 1.3814 7
8.83055 0 6
8.83055 0 7
9.29026 1.47143 6
9.29026 1.47143 7
9.40606 0 6
9.40606 0 7
8.94569 2.90663 7
8.94569 2.90663 8
9.51057 3.09017 7
9.51057 3.09017 8
8.38086 4.27026 7
8.38086 4.27026 8
8.91007 4.5399 7
8.91007 4.5399 8
8.39835 2.72879 7
8.72183 1.3814 7
8.94569 2.90663 7
9.29026 1.47143 7
8.39835 2.72879 8
8.72183 1.3814 8
8.94569 2.90663 8
9.29026 1.47143 8
8.17162 1.29426 7
8.17162 1.29426 8
8.27348 0 7
8.27348 0 8
8.72183 1.3814 7
8.72183 1.3814 8
8.83055 0 7
8.83055 0 8
7.63961 1.20999 8
7.63961 1.20999 9
7.73484 0 8
7.73484 0 9
8.17162 1.29426 8
8.17162 1.29426 9
8.27348 0 8
8.27348 0 9
7.86855 2.55664 8
8.17162 1.29426 8
8.39835 2.72879 8
8.72183 1.3814 8
7.86855 2.55664 9
8.17162 1.29426 9
8.39835 2.72879 9
8.72183 1.3814 9
8.39835 2.72879 8
8.39835 2.72879 9
8.94569 2.90663 8
8.94569 2.90663 9
7.86808 4.00898 8
7.86808 4.00898 9
8.38086 4.27026 8
8.38086 4.27026 9
7.60966 5.52874 8
8.38086 4.27026 8
8.09017 5.87785 8
8.91007 4.5399 8
7.60966 5.52874 9
8.38086 4.27026 9
8.09017 5.87785 9
8.91007 4.5399 9
7.60966 5.52874 9
7.60966 5.52874 10
8.09017 5.87785 9
8.09017 5.87785 10
6.65109 6.65109 9
6.65109 6.65109 10
7.07107 7.07107 9
7.07107 7.07107 10
7.14407 5.19047 9
7.86808 4.00898 9
7.60966 5.52874 9
8.38086 4.27026 9
7.14407 5.19047 10
7.86808 4.00898 10
7.60966 5.52874 10
8.38086 4.27026 10
7.86855 2.55664 9
7.86855 2.55664 10
8.39835 2.72879 9
8.39835 2.72879 10
7.37172 3.75608 9
7.37172 3.75608 10
7.86808 4.00898 9
7.86808 4.00898 10
7.35627 2.39019 9
7.63961 1.20999 9
7.86855 2.55664 9
8.17162 1.29426 9
7.35627 2.39019 10
7.63961 1.20999 10
7.86855 2.55664 10
8.17162 1.29426 10
7.1258 1.12862 9
7.1258 1.12862 10
7.21463 0 9
7.21463 0 10
7.63961 1.20999 9
7.63961 1.20999 10
7.73484 0 9
7.73484 0 10
9.29026 1.47143 4
9.29026 1.47143 5
9.40606 0 4
9.40606 0 5
9.87688 1.56434 4
9.87688 1.56434 5
10 0 4
10 0 5
8.72183 1.3814 5
8.72183 1.3814 6
8.83055 0 5
8.83055 0 6
9.29026 1.47143 5
9.29026 1.47143 6
9.40606 0 5
9.40606 0 6
8.94569 2.90663 5
8.94569 2.90663 6
9.29026 1.47143 5
9.29026 1.47143 6
9.51057 3.09017 5
9.51057 3.09017 6
9.87688 1.56434 5
9.87688 1.56434 6
8.94569 2.90663 6
8.94569 2.90663 7
9.51057 3.09017 6
9.51057 3.09017 7
8.38086 4.27026 6
8.38086 4.27026 7
8.91007 4.5399 6
8.91007 4.5399 7
8.39835 2.72879 6
8.72183 1.3814 6
8.94569 2.90663 6
9.29026 1.47143 6
8.39835 2.72879 7
8.72183 1.3814 7
8.94569 2.90663 7
9.29026 1.47143 7
8.17162 1.29426 6
8.17162 1.29426 7
8.27348 0 6
8.27348 0 7
8.72183 1.3814 6
8.72183 1.3814 7
8.83055 0 6
8.83055 0 7
7.60966 5.52874 7
8.38086 4.27026 7
8.09017 5.87785 7
8.91007 4.5399 7
7.60966 5.52874 8
8.38086 4.27026 8
8.09017 5.87785 8
8.91007 4.5399 8
8.39835 2.72879 7
8.39835 2.72879 8
8.94569 2.90663 7
8.94569 2.90663 8
7.86808 4.00898 7
7.86808 4.00898 8
8.38086 4.27026 7
8.38086 4.27026 8
7.86855 2.55664 7
8.17162 1.29426 7
8.39835 2.72879 7
8.72183 1.3814 7
7.86855 2.55664 8
8.17162 1.29426 8
8.39835 2.72879 8
8.72183 1.3814 8
7.63961 1.20999 7
7.63961 1.20999 8
7.73484 0 7
7.73484 0 8
8.17162 1.29426 7
8.17162 1.29426 8
8.27348 0 7
8.27348 0 8
7.1258 1.12862 8
7.1258 1.12862 9
7.21463 0 8
7.21463 0 9
7.63961 1.20999 8
7.63961 1.20999 9
7.73484 0 8
7.73484 0 9
7.35627 2.39019 8
7.63961 1.20999 8
7.86855 2.55664 8
8.17162 1.29426 8
7.35627 2.39019 9
7.63961 1.20999 9
7.86855 2.55664 9
8.17162 1.29426 9
7.86855 2.55664 8
7.86855 2.55664 9
8.39835 2.72879 8
8.39835 2.72879 9
7.37172 3.75608 8
7.37172 3.75608 9
7.86808 4.00898 8
7.86808 4.00898 9
7.14407 5.19047 8
7.86808 4.00898 8
7.60966 5.52874 8
8.38086 4.27026 8
7.14407 5.19047 9
7.86808 4.00898 9
7.60966 5.52874 9
8.38086 4.27026 9
7.60966 5.52874 8
7.60966 5.52874 9
8.09017 5.87785 8
8.09017 5.87785 9
6.65109 6.65109 8
6.65109 6.65109 9
7.07107 7.07107 8
7.07107 7.07107 9
6.65109 6.65109 9
6.65109 6.65109 10
7.07107 7.07107 9
7.07107 7.07107 10
5.52875 7.60966 9
5.52875 7.60966 10
5.87786 8.09017 9
5.87786 8.09017 10
7.14407 5.19047 9
7.14407 5.19047 10
7.60966 5.52874 9
7.60966 5.52874 10
6.24415 6.24414 9
6.24415 6.24414 10
6.65109 6.65109 9
6.65109 6.65109 10
6.69339 4.86303 9
7.37172 3.75608 9
7.14407 5.19047 9
7.86808 4.00898 9
6.69339 4.86303 10
7.37172 3.75608 10
7.14407 5.19047 10
7.86808 4.00898 10
7.35627 2.39019 9
7.35627 2.39019 10
7.86855 2.55664 9
7.86855 2.55664 10
6.89179 3.51154 9
6.89179 3.51154 10
7.37172 3.75608 9
7.37172 3.75608 10
6.86152 2.22944 9
7.1258 1.12862 9
7.35627 2.39019 9
7.63961 1.20999 9
6.86152 2.22944 10
7.1258 1.12862 10
7.35627 2.39019 10
7.63961 1.20999 10
6.6302 1.05012 9
6.6302 1.05012 10
6.71285 0 9
6.71285 0 10
7.1258 1.12862 9
7.1258 1.12862 10
7.21463 0 9
7.21463 0 10
9.29026 1.47143 3
9.29026 1.47143 4
9.40606 0 3
9.40606 0 4
9.87688 1.56434 3
9.87688 1.56434 4
10 0 3
10 0 4
8.72183 1.3814 4
8.72183 1.3814 5
8.83055 0 4
8.83055 0 5
9.29026 1.47143 4
9.29026 1.47143 5
9.40606 0 4
9.40606 0 5
8.94569 2.90663 4
8.94569 2.90663 5
9.29026 1.47143 4
9.29026 1.47143 5
9.51057 3.09017 4
9.51057 3.09017 5
9.87688 1.56434 4
9.87688 1.56434 5
8.17162 1.29426 5
8.17162 1.29426 6
8.27348 0 5
8.27348 0 6
8.72183 1.3814 5
8.72183 1.3814 6
8.83055 0 5
8.83055 0 6
8.39835 2.72879 5
8.72183 1.3814 5
8.94569 2.90663 5
9.29026 1.47143 5
8.39835 2.72879 6
8.72183 1.3814 6
8.94569 2.90663 6
9.29026 1.47143 6
8.94569 2.90663 5
8.94569 2.90663 6
9.51057 3.09017 5
9.51057 3.09017 6
8.38086 4.27026 5
8.38086 4.27026 6
8.91007 4.5399 5
8.91007 4.5399 6
7.60966 5.52874 6
8.38086 4.27026 6
8.09017 5.87785 6
8.91007 4.5399 6
7.60966 5.52874 7
8.38086 4.27026 7
8.09017 5.87785 7
8.91007 4.5399 7
8.39835 2.72879 6
8.39835 2.72879 7
8.94569 2.90663 6
8.94569 2.90663 7
7.86808 4.00898 6
7.86808 4.00898 7
8.38086 4.27026 6
8.38086 4.27026 7
7.86855 2.55664 6
8.17162 1.29426 6
8.39835 2.72879 6
8.72183 1.3814 6
7.86855 2.55664 7
8.17162 1.29426 7
8.39835 2.72879 7
8.72183 1.3814 7
7.63961 1.20999 6
7.63961 1.20999 7
7.73484 0 6
7.73484 0 7
8.17162 1.29426 6
8.17162 1.29426 7
8.27348 0 6
8.27348 0 7
7.60966 5.52874 7
7.60966 5.52874 8
8.09017 5.87785 7
8.09017 5.87785 8
6.65109 6.65109 7
6.65109 6.65109 8
7.07107 7.07107 7
7.07107 7.07107 8
7.14407 5.19047 7
7.86808 4.00898 7
7.60966 5.52874 7
8.38086 4.27026 7
7.14407 5.19047 8
7.86808 4.00898 8
7.60966 5.52874 8
8.38086 4.27026 8
7.86855 2.55664 7
7.86855 2.55664 8
8.39835 2.72879 7
8.39835 2.72879 8
7.37172 3.75608 7
7.37172 3.75608 8
7.86808 4.00898 7
7.86808 4.00898 8
7.35627 2.39019 7
7.63961 1.20999 7
7.86855 2.55664 7
8.17162 1.29426 7
7.35627 2.39019 8
7.63961 1.20999 8
7.86855 2.55664 8
8.17162 1.29426 8
7.1258 1.12862 7
7.1258 1.12862 8
7.21463 0 7
7.21463 0 8
7.63961 1.20999 7
7.63961 1.20999 8
7.73484 0 7
7.73484 0 8
6.6302 1.05012 8
6.6302 1.05012 9
6.71285 0 8
6.71285 0 9
7.1258 1.12862 8
7.1258 1.12862 9
7.21463 0 8
7.21463 0 9
6.86152 2.22944 8
7.1258 1.12862 8
7.35627 2.39019 8
7.63961 1.20999 8
6.86152 2.22944 9
7.1258 1.12862 9
7.35627 2.39019 9
7.63961 1.20999 9
7.35627 2.39019 8
7.35627 2.39019 9
[...]
POINT_DATA 24000
SCALARS U double 1
LOOKUP_TABLE default
-3.11088e-16 -2.94611e-16 -3.06589e-16 -2.92e-16 6.15257e-17 5.80806e-17 6.08908e-17 5.74415e-17 -3.52667e-16 -3.11088e-16 -3.50488e-16 -3.06589e-16 6.98085e-17 6.15257e-17 6.94673e-17 6.08908e-17 -3.21742e-16 -3.07196e-16 -3.11088e-16 -2.94611e-16 6.34734e-17 6.03562e-17 6.15257e-17 5.80806e-17 2.67349e-15 2.54631e-15 2.64012e-15 2.51126e-15 -3.11088e-16 -2.94611e-16 -3.06589e-16 -2.92e-16 -4.13909e-16 -3.52667e-16 -4.08662e-16 -3.50488e-16 8.40571e-17 6.98085e-17 8.22093e-17 6.94673e-17 3.01672e-15 2.67349e-15 2.98585e-15 2.64012e-15 -3.52667e-16 -3.11088e-16 -3.50488e-16 -3.06589e-16 -3.64044e-16 -3.21742e-16 -3.52667e-16 -3.11088e-16 7.30614e-17 6.34734e-17 6.98085e-17 6.15257e-17 -3.21742e-16 -3.07196e-16 6.34734e-17 6.03562e-17 -3.3987e-16 -3.2406e-16 6.7372e-17 6.39563e-17 2.772e-15 2.67349e-15 -3.21742e-16 -3.11088e-16 2.64802e-15 2.54631e-15 -3.07196e-16 -2.94611e-16 -1.60505e-14 -1.5394e-14 -1.58649e-14 -1.51185e-14 2.67349e-15 2.54631e-15 2.64012e-15 2.51126e-15 -4.77981e-16 -4.13909e-16 -4.79117e-16 -4.08662e-16 9.47113e-17 8.40571e-17 9.5968e-17 8.22093e-17 -4.20247e-16 -3.64044e-16 -4.13909e-16 -3.52667e-16 8.32961e-17 7.30614e-17 8.40571e-17 6.98085e-17 3.49646e-15 3.01672e-15 3.47708e-15 2.98585e-15 -4.13909e-16 -3.52667e-16 -4.08662e-16 -3.50488e-16 -1.79221e-14 -1.60505e-14 -1.76769e-14 -1.58649e-14 3.01672e-15 2.67349e-15 2.98585e-15 2.64012e-15 3.10548e-15 3.01672e-15 -3.64044e-16 -3.52667e-16 2.772e-15 2.67349e-15 -3.21742e-16 -3.11088e-16 -3.64044e-16 -3.21742e-16 7.30614e-17 6.34734e-17 -3.78141e-16 -3.3987e-16 7.38015e-17 6.7372e-17 -3.60729e-16 -3.3987e-16 7.10693e-17 6.7372e-17 -3.476e-16 -3.2406e-16 6.74775e-17 6.39563e-17 2.772e-15 2.64802e-15 -3.21742e-16 -3.07196e-16 2.92339e-15 2.80502e-15 -3.3987e-16 -3.2406e-16 -1.66941e-14 -1.60505e-14 2.772e-15 2.67349e-15 -1.59899e-14 -1.5394e-14 2.64802e-15 2.54631e-15 -4.55289e-14 -4.25189e-14 -4.54155e-14 -4.21274e-14 -1.60505e-14 -1.5394e-14 -1.58649e-14 -1.51185e-14 -5.38839e-16 -4.77981e-16 -5.3411e-16 -4.79117e-16 1.10495e-16 9.47113e-17 1.08909e-16 9.5968e-17 -4.86521e-16 -4.20247e-16 -4.77981e-16 -4.13909e-16 9.85423e-17 8.32961e-17 9.47113e-17 8.40571e-17 4.04627e-15 3.49646e-15 4.01728e-15 3.47708e-15 -4.77981e-16 -4.13909e-16 -4.79117e-16 -4.08662e-16 -4.20247e-16 -3.64044e-16 8.32961e-17 7.30614e-17 -4.35123e-16 -3.78141e-16 8.86981e-17 7.38015e-17 3.57648e-15 3.49646e-15 -4.20247e-16 -4.13909e-16 3.10548e-15 3.01672e-15 -3.64044e-16 -3.52667e-16 -2.04675e-14 -1.79221e-14 -2.03833e-14 -1.76769e-14 3.49646e-15 3.01672e-15 3.47708e-15 2.98585e-15 -5.44316e-14 -4.55289e-14 -5.40201e-14 -4.54155e-14 -1.79221e-14 -1.60505e-14 -1.76769e-14 -1.58649e-14 -1.84412e-14 -1.79221e-14 3.10548e-15 3.01672e-15 -1.66941e-14 -1.60505e-14 2.772e-15 2.67349e-15 3.10548e-15 2.772e-15 -3.64044e-16 -3.21742e-16 3.2432e-15 2.92339e-15 -3.78141e-16 -3.3987e-16 -4.00685e-16 -3.78141e-16 8.12276e-17 7.38015e-17 -3.60729e-16 -3.3987e-16 7.10693e-17 6.7372e-17 -3.60729e-16 -3.476e-16 7.10693e-17 6.74775e-17 -3.86466e-16 -3.71934e-16 7.61529e-17 7.43789e-17 3.11426e-15 2.92339e-15 -3.60729e-16 -3.3987e-16 3.00418e-15 2.80502e-15 -3.476e-16 -3.2406e-16 -1.66941e-14 -1.59899e-14 2.772e-15 2.64802e-15 -1.76233e-14 -1.70434e-14 2.92339e-15 2.80502e-15 -4.62564e-14 -4.55289e-14 -1.66941e-14 -1.60505e-14 -4.29967e-14 -4.25189e-14 -1.59899e-14 -1.5394e-14 3.87724e-12 3.6972e-12 3.838e-12 3.6556e-12 -4.55289e-14 -4.25189e-14 -4.54155e-14 -4.21274e-14 -5.73807e-16 -5.38839e-16 -5.76952e-16 -5.3411e-16 1.13236e-16 1.10495e-16 1.14604e-16 1.08909e-16 4.52414e-15 4.04627e-15 4.5238e-15 4.01728e-15 -5.38839e-16 -4.77981e-16 -5.3411e-16 -4.79117e-16 -5.38689e-16 -4.86521e-16 -5.38839e-16 -4.77981e-16 1.07876e-16 9.85423e-17 1.10495e-16 9.47113e-17 -4.86521e-16 -4.20247e-16 9.85423e-17 8.32961e-17 -4.93878e-16 -4.35123e-16 9.83886e-17 8.86981e-17 4.08752e-15 4.04627e-15 -4.86521e-16 -4.77981e-16 3.57648e-15 3.49646e-15 -4.20247e-16 -4.13909e-16 -2.35469e-14 -2.04675e-14 -2.33424e-14 -2.03833e-14 4.04627e-15 3.49646e-15 4.01728e-15 3.47708e-15 -4.48928e-16 -4.35123e-16 8.82551e-17 8.86981e-17 -4.00685e-16 -3.78141e-16 8.12276e-17 7.38015e-17 3.57648e-15 3.10548e-15 -4.20247e-16 -3.64044e-16 3.67484e-15 3.2432e-15 -4.35123e-16 -3.78141e-16 -2.09843e-14 -2.04675e-14 3.57648e-15 3.49646e-15 -1.84412e-14 -1.79221e-14 3.10548e-15 3.01672e-15 -6.6748e-14 -5.44316e-14 -6.70959e-14 -5.40201e-14 -2.04675e-14 -1.79221e-14 -2.03833e-14 -1.76769e-14 4.37457e-12 3.87724e-12 4.33834e-12 3.838e-12 -5.44316e-14 -4.55289e-14 -5.40201e-14 -4.54155e-14 -5.48719e-14 -5.44316e-14 -1.84412e-14 -1.79221e-14 -4.62564e-14 -4.55289e-14 -1.66941e-14 -1.60505e-14 -1.84412e-14 -1.66941e-14 3.10548e-15 2.772e-15 -1.93547e-14 -1.76233e-14 3.2432e-15 2.92339e-15 3.41178e-15 3.2432e-15 -4.00685e-16 -3.78141e-16 3.11426e-15 2.92339e-15 -3.60729e-16 -3.3987e-16 -4.00685e-16 -3.60729e-16 8.12276e-17 7.10693e-17 -4.18443e-16 -3.86466e-16 8.17291e-17 7.61529e-17 -3.86466e-16 -3.71934e-16 7.61529e-17 7.43789e-17 -4.0797e-16 -3.97525e-16 7.9611e-17 7.72459e-17 3.11426e-15 3.00418e-15 -3.60729e-16 -3.476e-16 3.32753e-15 3.21564e-15 -3.86466e-16 -3.71934e-16 -1.88797e-14 -1.76233e-14 3.11426e-15 2.92339e-15 -1.82219e-14 -1.70434e-14 3.00418e-15 2.80502e-15 -4.62564e-14 -4.29967e-14 -1.66941e-14 -1.59899e-14 -4.70911e-14 -4.4178e-14 -1.76233e-14 -1.70434e-14 3.99443e-12 3.87724e-12 -4.62564e-14 -4.55289e-14 3.81669e-12 3.6972e-12 -4.29967e-14 -4.25189e-14 -7.72458e-11 -7.39888e-11 -7.64382e-11 -7.317e-11 3.87724e-12 3.6972e-12 3.838e-12 3.6556e-12 -5.97875e-16 -5.73807e-16 -5.94737e-16 -5.76952e-16 1.20396e-16 1.13236e-16 1.18791e-16 1.14604e-16 4.88398e-15 4.52414e-15 4.87368e-15 4.5238e-15 -5.73807e-16 -5.38839e-16 -5.76952e-16 -5.3411e-16 -5.79119e-16 -5.38689e-16 -5.73807e-16 -5.38839e-16 1.16018e-16 1.07876e-16 1.13236e-16 1.10495e-16 -2.63783e-14 -2.35469e-14 -2.63934e-14 -2.33424e-14 4.52414e-15 4.04627e-15 4.5238e-15 4.01728e-15 4.56636e-15 4.52414e-15 -5.38689e-16 -5.38839e-16 4.08752e-15 4.04627e-15 -4.86521e-16 -4.77981e-16 -5.38689e-16 -4.86521e-16 1.07876e-16 9.85423e-17 -5.45602e-16 -4.93878e-16 1.1051e-16 9.83886e-17 -5.06388e-16 -4.93878e-16 1.02666e-16 9.83886e-17 -4.48928e-16 -4.35123e-16 8.82551e-17 8.86981e-17 4.08752e-15 3.57648e-15 -4.86521e-16 -4.20247e-16 4.18967e-15 3.67484e-15 -4.93878e-16 -4.35123e-16 -2.38544e-14 -2.35469e-14 4.08752e-15 4.04627e-15 -2.09843e-14 -2.04675e-14 3.57648e-15 3.49646e-15 -7.87813e-14 -6.6748e-14 -7.81487e-14 -6.70959e-14 -2.35469e-14 -2.04675e-14 -2.33424e-14 -2.03833e-14 -4.48928e-16 -4.00685e-16 8.82551e-17 8.12276e-17 -4.69115e-16 -4.18443e-16 9.41231e-17 8.17291e-17 3.84045e-15 3.67484e-15 -4.48928e-16 -4.35123e-16 3.41178e-15 3.2432e-15 -4.00685e-16 -3.78141e-16 -2.09843e-14 -1.84412e-14 3.57648e-15 3.10548e-15 -2.1685e-14 -1.93547e-14 3.67484e-15 3.2432e-15 -6.74806e-14 -6.6748e-14 -2.09843e-14 -2.04675e-14 -5.48719e-14 -5.44316e-14 -1.84412e-14 -1.79221e-14 5.07959e-12 4.37457e-12 5.05022e-12 4.33834e-12 -6.6748e-14 -5.44316e-14 -6.70959e-14 -5.40201e-14 -8.61576e-11 -7.72458e-11 -8.54453e-11 -7.64382e-11 4.37457e-12 3.87724e-12 4.33834e-12 3.838e-12 4.48015e-12 4.37457e-12 -5.48719e-14 -5.44316e-14 3.99443e-12 3.87724e-12 -4.62564e-14 -4.55289e-14 -5.48719e-14 -4.62564e-14 -1.84412e-14 -1.66941e-14 -5.6056e-14 -4.70911e-14 -1.93547e-14 -1.76233e-14 -2.03653e-14 -1.93547e-14 3.41178e-15 3.2432e-15 -1.88797e-14 -1.76233e-14 3.11426e-15 2.92339e-15 3.41178e-15 3.11426e-15 -4.00685e-16 -3.60729e-16 3.60478e-15 3.32753e-15 -4.18443e-16 -3.86466e-16 -4.18443e-16 -3.86466e-16 8.17291e-17 7.61529e-17 -4.44715e-16 -4.0797e-16 9.03115e-17 7.9611e-17 -4.3349e-16 -4.18437e-16 -4.0797e-16 -3.97525e-16 8.49702e-17 8.17697e-17 7.9611e-17 7.72459e-17 3.32753e-15 3.21564e-15 -3.86466e-16 -3.71934e-16 3.53239e-15 3.44394e-15 -4.0797e-16 -3.97525e-16 -1.88797e-14 -1.82219e-14 3.11426e-15 3.00418e-15 -2.01303e-14 -1.96933e-14 3.32753e-15 3.21564e-15 -4.8554e-14 -4.70911e-14 -1.88797e-14 -1.76233e-14 -4.511e-14 -4.4178e-14 -1.82219e-14 -1.70434e-14 3.99443e-12 3.81669e-12 -4.62564e-14 -4.29967e-14 4.17423e-12 4.00273e-12 -4.70911e-14 -4.4178e-14 -7.96291e-11 -7.72458e-11 3.99443e-12 3.87724e-12 -7.64628e-11 -7.39888e-11 3.81669e-12 3.6972e-12 2.56422e-10 2.4967e-10 2.5345e-10 2.46471e-10 -7.72458e-11 -7.39888e-11 -7.64382e-11 -7.317e-11 -6.00731e-16 -5.97875e-16 -6.02631e-16 -5.94737e-16 1.18055e-16 1.20396e-16 1.19383e-16 1.18791e-16 5.08078e-15 4.88398e-15 5.07748e-15 4.87368e-15 -5.97875e-16 -5.73807e-16 -5.94737e-16 -5.76952e-16 -5.94785e-16 -5.79119e-16 -5.97875e-16 -5.73807e-16 1.19774e-16 1.16018e-16 1.20396e-16 1.13236e-16 -2.87994e-14 -2.63783e-14 -2.86459e-14 -2.63934e-14 4.88398e-15 4.52414e-15 4.87368e-15 4.5238e-15 4.89588e-15 4.88398e-15 -5.79119e-16 -5.73807e-16 4.56636e-15 4.52414e-15 -5.38689e-16 -5.38839e-16 -5.79119e-16 -5.38689e-16 1.16018e-16 1.07876e-16 -5.79076e-16 -5.45602e-16 1.15917e-16 1.1051e-16 -8.48602e-14 -7.87813e-14 -8.56692e-14 -7.81487e-14 -2.63783e-14 -2.35469e-14 -2.63934e-14 -2.33424e-14 -2.66955e-14 -2.63783e-14 4.56636e-15 4.52414e-15 -2.38544e-14 -2.35469e-14 4.08752e-15 4.04627e-15 4.56636e-15 4.08752e-15 -5.38689e-16 -4.86521e-16 4.59919e-15 4.18967e-15 -5.45602e-16 -4.93878e-16 -5.49213e-16 -5.45602e-16 1.08074e-16 1.1051e-16 -5.06388e-16 -4.93878e-16 1.02666e-16 9.83886e-17 -5.06388e-16 -4.48928e-16 1.02666e-16 8.82551e-17 -5.17303e-16 -4.69115e-16 1.04328e-16 9.41231e-17 4.26174e-15 4.18967e-15 -5.06388e-16 -4.93878e-16 3.84045e-15 3.67484e-15 -4.48928e-16 -4.35123e-16 -2.38544e-14 -2.09843e-14 4.08752e-15 3.57648e-15 -2.43674e-14 -2.1685e-14 4.18967e-15 3.67484e-15 -7.82243e-14 -7.87813e-14 -2.38544e-14 -2.35469e-14 -6.74806e-14 -6.6748e-14 -2.09843e-14 -2.04675e-14 5.83204e-12 5.07959e-12 5.81421e-12 5.05022e-12 -7.87813e-14 -6.6748e-14 -7.81487e-14 -6.70959e-14 -4.69115e-16 -4.18443e-16 9.41231e-17 8.17291e-17 -4.83747e-16 -4.44715e-16 9.54723e-17 9.03115e-17 3.84045e-15 3.41178e-15 -4.48928e-16 -4.00685e-16 3.96814e-15 3.60478e-15 -4.69115e-16 -4.18443e-16 -2.25699e-14 -2.1685e-14 3.84045e-15 3.67484e-15 -2.03653e-14 -1.93547e-14 3.41178e-15 3.2432e-15 -6.74806e-14 -5.48719e-14 -2.09843e-14 -1.84412e-14 -6.7548e-14 -5.6056e-14 -2.1685e-14 -1.93547e-14 5.16454e-12 5.07959e-12 -6.74806e-14 -6.6748e-14 4.48015e-12 4.37457e-12 -5.48719e-14 -5.44316e-14 -9.88192e-11 -8.61576e-11 -9.82261e-11 -8.54453e-11 5.07959e-12 4.37457e-12 5.05022e-12 4.33834e-12 2.73838e-10 2.56422e-10 2.71135e-10 2.5345e-10 -8.61576e-11 -7.72458e-11 -8.54453e-11 -7.64382e-11 -8.83182e-11 -8.61576e-11 4.48015e-12 4.37457e-12 -7.96291e-11 -7.72458e-11 3.99443e-12 3.87724e-12 4.48015e-12 3.99443e-12 -5.48719e-14 -4.62564e-14 4.64186e-12 4.17423e-12 -5.6056e-14 -4.70911e-14 -5.67129e-14 -5.6056e-14 -2.03653e-14 -1.93547e-14 -4.8554e-14 -4.70911e-14 -1.88797e-14 -1.76233e-14 -2.03653e-14 -1.88797e-14 3.41178e-15 3.11426e-15 -2.16429e-14 -2.01303e-14 3.60478e-15 3.32753e-15 3.60478e-15 3.32753e-15 -4.18443e-16 -3.86466e-16 3.787e-15 3.53239e-15 -4.44715e-16 -4.0797e-16 -4.58441e-16 -4.3349e-16 -4.44715e-16 -4.0797e-16 8.97302e-17 8.49702e-17 9.03115e-17 7.9611e-17 -4.3349e-16 -4.18437e-16 8.49702e-17 8.17697e-17 -4.47125e-16 -4.37928e-16 8.97259e-17 8.71147e-17 3.73132e-15 3.62538e-15 3.53239e-15 3.44394e-15 -4.3349e-16 -4.18437e-16 -4.0797e-16 -3.97525e-16 -2.01303e-14 -1.96933e-14 3.32753e-15 3.21564e-15 -2.15681e-14 -2.09597e-14 3.53239e-15 3.44394e-15 -4.8554e-14 -4.511e-14 -1.88797e-14 -1.82219e-14 -4.97139e-14 -4.68206e-14 -2.01303e-14 -1.96933e-14 4.40234e-12 4.17423e-12 -4.8554e-14 -4.70911e-14 4.23727e-12 4.00273e-12 -4.511e-14 -4.4178e-14 -7.96291e-11 -7.64628e-11 3.99443e-12 3.81669e-12 -8.32923e-11 -8.02354e-11 4.17423e-12 4.00273e-12 2.66405e-10 2.56422e-10 -7.96291e-11 -7.72458e-11 2.59941e-10 2.4967e-10 -7.64628e-11 -7.39888e-11 5.05519e-08 4.85966e-08 5.00891e-08 4.81184e-08 2.56422e-10 2.4967e-10 2.5345e-10 2.46471e-10 -6.02303e-16 -6.00731e-16 -6.01571e-16 -6.02631e-16 1.1918e-16 1.18055e-16 1.1867e-16 1.19383e-16 -6.02429e-16 -5.94785e-16 -6.00731e-16 -5.97875e-16 1.17694e-16 1.19774e-16 1.18055e-16 1.20396e-16 5.16407e-15 5.08078e-15 5.17184e-15 5.07748e-15 -6.00731e-16 -5.97875e-16 -6.02631e-16 -5.94737e-16 -3.02399e-14 -2.87994e-14 -3.03379e-14 -2.86459e-14 5.08078e-15 4.88398e-15 5.07748e-15 4.87368e-15 5.08001e-15 5.08078e-15 -5.94785e-16 -5.97875e-16 4.89588e-15 4.88398e-15 -5.79119e-16 -5.73807e-16 -5.94785e-16 -5.79119e-16 1.19774e-16 1.16018e-16 -5.96079e-16 -5.79076e-16 1.1862e-16 1.15917e-16 -8.64697e-14 -8.48602e-14 -8.60791e-14 -8.56692e-14 -2.87994e-14 -2.63783e-14 -2.86459e-14 -2.63934e-14 -2.88267e-14 -2.87994e-14 4.89588e-15 4.88398e-15 -2.66955e-14 -2.63783e-14 4.56636e-15 4.52414e-15 4.89588e-15 4.56636e-15 -5.79119e-16 -5.38689e-16 4.92579e-15 4.59919e-15 -5.79076e-16 -5.45602e-16 -5.8514e-16 -5.79076e-16 1.18381e-16 1.15917e-16 -5.49213e-16 -5.45602e-16 1.08074e-16 1.1051e-16 6.46462e-12 5.83204e-12 6.45346e-12 5.81421e-12 -8.48602e-14 -7.87813e-14 -8.56692e-14 -7.81487e-14 -8.49305e-14 -8.48602e-14 -2.66955e-14 -2.63783e-14 -7.82243e-14 -7.87813e-14 -2.38544e-14 -2.35469e-14 -2.66955e-14 -2.38544e-14 4.56636e-15 4.08752e-15 -2.70916e-14 -2.43674e-14 4.59919e-15 4.18967e-15 4.69311e-15 4.59919e-15 -5.49213e-16 -5.45602e-16 4.26174e-15 4.18967e-15 -5.06388e-16 -4.93878e-16 -5.49213e-16 -5.06388e-16 1.08074e-16 1.02666e-16 -5.60349e-16 -5.17303e-16 1.13629e-16 1.04328e-16 -5.17303e-16 -4.69115e-16 1.04328e-16 9.41231e-17 -5.29865e-16 -4.83747e-16 1.06158e-16 9.54723e-17 4.26174e-15 3.84045e-15 -5.06388e-16 -4.48928e-16 4.39762e-15 3.96814e-15 -5.17303e-16 -4.69115e-16 -2.51645e-14 -2.43674e-14 4.26174e-15 4.18967e-15 -2.25699e-14 -2.1685e-14 3.84045e-15 3.67484e-15 -7.82243e-14 -6.74806e-14 -2.38544e-14 -2.09843e-14 -7.839e-14 -6.7548e-14 -2.43674e-14 -2.1685e-14 5.89241e-12 5.83204e-12 -7.82243e-14 -7.87813e-14 5.16454e-12 5.07959e-12 -6.74806e-14 -6.6748e-14 -1.12689e-10 -9.88192e-11 -1.12275e-10 -9.82261e-11 5.83204e-12 5.07959e-12 5.81421e-12 5.05022e-12 -5.02308e-16 -4.58441e-16 -4.83747e-16 -4.44715e-16 1.00198e-16 8.97302e-17 9.54723e-17 9.03115e-17 3.96814e-15 3.60478e-15 -4.69115e-16 -4.18443e-16 4.14429e-15 3.787e-15 -4.83747e-16 -4.44715e-16 -2.25699e-14 -2.03653e-14 3.84045e-15 3.41178e-15 -2.36038e-14 -2.16429e-14 3.96814e-15 3.60478e-15 -6.86134e-14 -6.7548e-14 -2.25699e-14 -2.1685e-14 -5.67129e-14 -5.6056e-14 -2.03653e-14 -1.93547e-14 5.16454e-12 4.48015e-12 -6.74806e-14 -5.48719e-14 5.29697e-12 4.64186e-12 -6.7548e-14 -5.6056e-14 -1.00591e-10 -9.88192e-11 5.16454e-12 5.07959e-12 -8.83182e-11 -8.61576e-11 4.48015e-12 4.37457e-12 2.9926e-10 2.73838e-10 2.97088e-10 2.71135e-10 -9.88192e-11 -8.61576e-11 -9.82261e-11 -8.54453e-11 5.59823e-08 5.05519e-08 5.55651e-08 5.00891e-08 2.73838e-10 2.56422e-10 2.71135e-10 2.5345e-10 2.82882e-10 2.73838e-10 -8.83182e-11 -8.61576e-11 2.66405e-10 2.56422e-10 -7.96291e-11 -7.72458e-11 -8.83182e-11 -7.96291e-11 4.48015e-12 3.99443e-12 -9.16014e-11 -8.32923e-11 4.64186e-12 4.17423e-12 4.84752e-12 4.64186e-12 -5.67129e-14 -5.6056e-14 4.40234e-12 4.17423e-12 -4.8554e-14 -4.70911e-14 -5.67129e-14 -4.8554e-14 -2.03653e-14 -1.88797e-14 -5.84517e-14 -4.97139e-14 -2.16429e-14 -2.01303e-14 -2.16429e-14 -2.01303e-14 3.60478e-15 3.32753e-15 -2.27479e-14 -2.15681e-14 3.787e-15 3.53239e-15 3.95688e-15 3.73132e-15 3.787e-15 3.53239e-15 -4.58441e-16 -4.3349e-16 -4.44715e-16 -4.0797e-16 -4.58441e-16 -4.3349e-16 8.97302e-17 8.49702e-17 -4.77689e-16 -4.47125e-16 9.39349e-17 8.97259e-17 -4.58894e-16 -4.49042e-16 -4.47125e-16 -4.37928e-16 8.86337e-17 8.53316e-17 8.97259e-17 8.71147e-17 3.73132e-15 3.62538e-15 -4.3349e-16 -4.18437e-16 3.85639e-15 3.79514e-15 -4.47125e-16 -4.37928e-16 -2.25839e-14 -2.23107e-14 -2.15681e-14 -2.09597e-14 3.73132e-15 3.62538e-15 3.53239e-15 3.44394e-15 -4.97139e-14 -4.68206e-14 -2.01303e-14 -1.96933e-14 -5.14752e-14 -4.78608e-14 -2.15681e-14 -2.09597e-14 4.40234e-12 4.23727e-12 -4.8554e-14 -4.511e-14 4.65193e-12 4.49668e-12 -4.97139e-14 -4.68206e-14 -8.79167e-11 -8.32923e-11 4.40234e-12 4.17423e-12 -8.50364e-11 -8.02354e-11 4.23727e-12 4.00273e-12 2.66405e-10 2.59941e-10 -7.96291e-11 -7.64628e-11 2.80532e-10 2.74758e-10 -8.32923e-11 -8.02354e-11 5.18785e-08 5.05519e-08 2.66405e-10 2.56422e-10 4.99675e-08 4.85966e-08 2.59941e-10 2.4967e-10 8.99212e-07 8.65184e-07 8.91789e-07 8.57518e-07 5.05519e-08 4.85966e-08 5.00891e-08 4.81184e-08 -6.00489e-16 -6.02303e-16 -6.00355e-16 -6.01571e-16 1.19227e-16 1.1918e-16 1.17683e-16 1.1867e-16 5.18281e-15 5.16407e-15 5.16975e-15 5.17184e-15 -6.02303e-16 -6.00731e-16 -6.01571e-16 -6.02631e-16 -6.02703e-16 -6.02429e-16 -6.02303e-16 -6.00731e-16 1.20436e-16 1.17694e-16 1.1918e-16 1.18055e-16 -6.02429e-16 -5.94785e-16 1.17694e-16 1.19774e-16 -6.028e-16 -5.96079e-16 1.17821e-16 1.1862e-16 5.17769e-15 5.16407e-15 -6.02429e-16 -6.00731e-16 5.08001e-15 5.08078e-15 -5.94785e-16 -5.97875e-16 -3.1223e-14 -3.02399e-14 -3.11108e-14 -3.03379e-14 5.16407e-15 5.08078e-15 5.17184e-15 5.07748e-15 -8.1822e-14 -8.64697e-14 -8.25226e-14 -8.60791e-14 -3.02399e-14 -2.87994e-14 -3.03379e-14 -2.86459e-14 -3.04444e-14 -3.02399e-14 5.08001e-15 5.08078e-15 -2.88267e-14 -2.87994e-14 4.89588e-15 4.88398e-15 5.08001e-15 4.89588e-15 -5.94785e-16 -5.79119e-16 5.09725e-15 4.92579e-15 -5.96079e-16 -5.79076e-16 -5.94486e-16 -5.96079e-16 1.18618e-16 1.1862e-16 -5.8514e-16 -5.79076e-16 1.18381e-16 1.15917e-16 6.8756e-12 6.46462e-12 6.87361e-12 6.45346e-12 -8.64697e-14 -8.48602e-14 -8.60791e-14 -8.56692e-14 -8.52326e-14 -8.64697e-14 -2.88267e-14 -2.87994e-14 -8.49305e-14 -8.48602e-14 -2.66955e-14 -2.63783e-14 -2.88267e-14 -2.66955e-14 4.89588e-15 4.56636e-15 -2.90583e-14 -2.70916e-14 4.92579e-15 4.59919e-15 4.93007e-15 4.92579e-15 -5.8514e-16 -5.79076e-16 4.69311e-15 4.59919e-15 -5.49213e-16 -5.45602e-16 -5.8514e-16 -5.49213e-16 1.18381e-16 1.08074e-16 -5.81227e-16 -5.60349e-16 1.15384e-16 1.13629e-16 -1.24985e-10 -1.12689e-10 -1.24737e-10 -1.12275e-10 6.46462e-12 5.83204e-12 6.45346e-12 5.81421e-12 6.49541e-12 6.46462e-12 -8.49305e-14 -8.48602e-14 5.89241e-12 5.83204e-12 -7.82243e-14 -7.87813e-14 -8.49305e-14 -7.82243e-14 -2.66955e-14 -2.38544e-14 -8.40725e-14 -7.839e-14 -2.70916e-14 -2.43674e-14 -2.74382e-14 -2.70916e-14 4.69311e-15 4.59919e-15 -2.51645e-14 -2.43674e-14 4.26174e-15 4.18967e-15 4.69311e-15 4.26174e-15 -5.49213e-16 -5.06388e-16 4.7224e-15 4.39762e-15 -5.60349e-16 -5.17303e-16 -5.60349e-16 -5.17303e-16 1.13629e-16 1.04328e-16 -5.6104e-16 -5.29865e-16 1.09182e-16 1.06158e-16 -5.39666e-16 -5.02308e-16 -5.29865e-16 -4.83747e-16 1.10426e-16 1.00198e-16 1.06158e-16 9.54723e-17 4.39762e-15 3.96814e-15 -5.17303e-16 -4.69115e-16 4.49079e-15 4.14429e-15 -5.29865e-16 -4.83747e-16 -2.51645e-14 -2.25699e-14 4.26174e-15 3.84045e-15 -2.58036e-14 -2.36038e-14 4.39762e-15 3.96814e-15 -7.82601e-14 -7.839e-14 -2.51645e-14 -2.43674e-14 -6.86134e-14 -6.7548e-14 -2.25699e-14 -2.1685e-14 5.89241e-12 5.16454e-12 -7.82243e-14 -6.74806e-14 5.97823e-12 5.29697e-12 -7.839e-14 -6.7548e-14 -1.13976e-10 -1.12689e-10 5.89241e-12 5.83204e-12 -1.00591e-10 -9.88192e-11 5.16454e-12 5.07959e-12 3.33984e-10 2.9926e-10 3.32181e-10 2.97088e-10 -1.12689e-10 -9.88192e-11 -1.12275e-10 -9.82261e-11 -5.02308e-16 -4.58441e-16 1.00198e-16 8.97302e-17 -5.12405e-16 -4.77689e-16 1.01711e-16 9.39349e-17 4.27033e-15 3.95688e-15 4.14429e-15 3.787e-15 -5.02308e-16 -4.58441e-16 -4.83747e-16 -4.44715e-16 -2.36038e-14 -2.16429e-14 3.96814e-15 3.60478e-15 -2.45589e-14 -2.27479e-14 4.14429e-15 3.787e-15 -6.86134e-14 -5.67129e-14 -2.25699e-14 -2.03653e-14 -6.91248e-14 -5.84517e-14 -2.36038e-14 -2.16429e-14 5.45868e-12 5.29697e-12 -6.86134e-14 -6.7548e-14 4.84752e-12 4.64186e-12 -5.67129e-14 -5.6056e-14 -1.00591e-10 -8.83182e-11 5.16454e-12 4.48015e-12 -1.03266e-10 -9.16014e-11 5.29697e-12 4.64186e-12 3.073e-10 2.9926e-10 -1.00591e-10 -9.88192e-11 2.82882e-10 2.73838e-10 -8.83182e-11 -8.61576e-11 6.36838e-08 5.59823e-08 6.33428e-08 5.55651e-08 2.9926e-10 2.73838