# vtk DataFile Version 3.0
#This file was generated by the deal.II library on 2020/4/9 at 22:55:14
ASCII
DATASET UNSTRUCTURED_GRID

POINTS 64 double
0.064545 0 0
0.063564 0.011208 0
0.02 0 0
0.019696 0.003472 0
0.064545 0 0.05
0.063564 0.011208 0.05
0.02 0 0.05
0.019696 0.003472 0.05
0.242727 0 0
0.23904 0.042149 0
0.064545 0 0
0.063564 0.011208 0
0.242727 0 0.05
0.23904 0.042149 0.05
0.064545 0 0.05
0.063564 0.011208 0.05
0.064545 0 0.05
0.063564 0.011208 0.05
0.02 0 0.05
0.019696 0.003472 0.05
0.064545 0 0.1
0.063564 0.011208 0.1
0.02 0 0.1
0.019696 0.003472 0.1
0.554545 0 0
0.546121 0.096295 0
0.242727 0 0
0.23904 0.042149 0
0.554545 0 0.05
0.546121 0.096295 0.05
0.242727 0 0.05
0.23904 0.042149 0.05
0.242727 0 0.05
0.23904 0.042149 0.05
0.064545 0 0.05
0.063564 0.011208 0.05
0.242727 0 0.1
0.23904 0.042149 0.1
0.064545 0 0.1
0.063564 0.011208 0.1
1 0 0
0.984808 0.173648 0
0.554545 0 0
0.546121 0.096295 0
1 0 0.05
0.984808 0.173648 0.05
0.554545 0 0.05
0.546121 0.096295 0.05
0.554545 0 0.05
0.546121 0.096295 0.05
0.242727 0 0.05
0.23904 0.042149 0.05
0.554545 0 0.1
0.546121 0.096295 0.1
0.242727 0 0.1
0.23904 0.042149 0.1
1 0 0.05
0.984808 0.173648 0.05
0.554545 0 0.05
0.546121 0.096295 0.05
1 0 0.1
0.984808 0.173648 0.1
0.554545 0 0.1
0.546121 0.096295 0.1

CELLS 8 72
8	0	1	3	2	4	5	7	6
8	8	9	11	10	12	13	15	14
8	16	17	19	18	20	21	23	22
8	24	25	27	26	28	29	31	30
8	32	33	35	34	36	37	39	38
8	40	41	43	42	44	45	47	46
8	48	49	51	50	52	53	55	54
8	56	57	59	58	60	61	63	62

CELL_TYPES 8
 12 12 12 12 12 12 12 12
POINT_DATA 64
SCALARS U double 1
LOOKUP_TABLE default
1 1 1 1 1 1 1 1 1 1 1 1 1 1 1 1 1 1 1 1 1 1 1 1 1 1 1 1 1 1 1 1 1 1 1 1 1 1 1 1 1 1 1 1 1 1 1 1 1 1 1 1 1 1 1 1 1 1 1 1 1 1 1 1 
